============================== echo of input deck ==============================
echo
start helium

permanent_dir ./perm
scratch_dir ./scratch

charge 1
geometry units angstroms noautosym
He 0 0 0
H 0.9295 0 0
end

basis
 * library 6-31G
end

scf
print overlap kinetic potential ao2eints debug
end
task scf
================================================================================

 Output coordinates in angstroms (scale by  1.889725989 to convert to a.u.)

  No.       Tag          Charge          X              Y              Z
 ---- ---------------- ---------- -------------- -------------- --------------
    1 He                   2.0000    -0.30983333     0.00000000     0.00000000
    2 H                    1.0000     0.61966667     0.00000000     0.00000000

 Vector    1  Occ=2.000000D+00  E=-1.567936D+00

 Vector    2  Occ=0.000000D+00  E=-4.245655D-01

 Vector    3  Occ=0.000000D+00  E= 4.849543D-01

 Vector    4  Occ=0.000000D+00  E= 8.885304D-01

         Total SCF energy =     -2.900873438199

 Vector    1  Occ=2.000000D+00  E=-1.524877D+00

 Vector    2  Occ=0.000000D+00  E=-3.339739D-01

 Vector    3  Occ=0.000000D+00  E= 4.641345D-01

 Vector    4  Occ=0.000000D+00  E= 1.064217D+00

       Multipole analysis of the density wrt the origin
       ------------------------------------------------

     L   x y z        total         open         nuclear
     -   - - -        -----         ----         -------
     0   0 0 0      1.000000      0.000000      3.000000

     1   1 0 0      0.813687      0.000000      0.000000
     1   0 1 0      0.000000      0.000000      0.000000
     1   0 0 1      0.000000      0.000000      0.000000

     2   2 0 0      0.599796      0.000000      2.056862
     2   1 1 0      0.000000      0.000000      0.000000
     2   1 0 1      0.000000      0.000000      0.000000
     2   0 2 0     -0.716462      0.000000      0.000000
     2   0 1 1      0.000000      0.000000      0.000000

 Total times  cpu:        0.0s     wall:        0.0s
