                               Psi4 1.1 release

  ==> Input File <==

--------------------------------------------------------------------------
import numpy as np

molecule helium {
1 1
 He 0 0 0
 H 0.9295 0 0
units angstrom
}

set {
	basis 6-31G
	reference rhf
	}

wfn = Wavefunction.build(helium,get_global_option('basis'))

mints=MintsHelper(wfn.basisset())
E = energy('scf')
S = mints.ao_overlap()
T = mints.ao_kinetic()
V = mints.ao_potential()
I = mints.ao_eri()
Enuc = helium.nuclear_repulsion_energy()

S_array = S.to_array()
T_array = T.to_array()
V_array = V.to_array()
I_array = I.to_array()

np.save('s',S_array)
np.save('t',T_array)
np.save('v',V_array)
np.save('eri',I_array)
np.save('enuc',Enuc)
print(E)
print(mints.nbf())

--------------------------------------------------------------------------

    Molecular point group: c2v

    Geometry (in Angstrom), charge = 1, multiplicity = 1:

       Center              X                  Y                   Z               Mass
    ------------   -----------------  -----------------  -----------------  -----------------
          HE          0.000000000000     0.000000000000    -0.186964729120     4.002603254150
           H          0.000000000000     0.000000000000     0.742535270880     1.007825032070

  Charge       = 1
  Multiplicity = 1
  Basis Set: 6-31G
    Blend: 6-31G
  Basis Set: (6-31G AUX)
    Blend: CC-PVDZ-JKFIT + DEF2-QZVPP-JKFIT

    Orbital Energies (a.u.)
    -----------------------

    Doubly Occupied:

       1A1    -1.524887

  @DF-RHF Final Energy:    -2.90088212770058

   => Energetics <=

    Nuclear Repulsion Energy =              1.1386276677568585
    One-Electron Energy =                  -5.0292444470905933
    Two-Electron Energy =                   0.9897346516331509
    DFT Exchange-Correlation Energy =       0.0000000000000000
    Empirical Dispersion Energy =           0.0000000000000000
    PCM Polarization Energy =               0.0000000000000000
    EFP Energy =                            0.0000000000000000
    Total Energy =                         -2.9008821277005841
*** Psi4 exiting successfully. Buy a developer a beer!
