                               Psi4 1.1 release

  ==> Input File <==

--------------------------------------------------------------------------
import numpy as np

molecule ammonia {
    0 1
N            .000000     .000000     .116489
H           .000000     .939731    -.271808
H            .813831    -.469865    -.271808
H           -.813831    -.469865    -.271808
units ang
}

set {
	basis STO-3G
	reference rhf
	}

wfn = Wavefunction.build(ammonia,get_global_option('basis'))

mints=MintsHelper(wfn.basisset())
E = energy('scf')
S = mints.ao_overlap()
T = mints.ao_kinetic()
V = mints.ao_potential()
I = mints.ao_eri()
Enuc = ammonia.nuclear_repulsion_energy()

S_array = S.to_array()
T_array = T.to_array()
V_array = V.to_array()
I_array = I.to_array()

np.save('s',S_array)
np.save('t',T_array)
np.save('v',V_array)
np.save('eri',I_array)
np.save('enuc',Enuc)
print(E)
print(mints.nbf())
--------------------------------------------------------------------------

    Molecular point group: cs

    Geometry (in Angstrom), charge = 0, multiplicity = 1:

       Center              X                  Y                   Z               Mass
    ------------   -----------------  -----------------  -----------------  -----------------
           N          0.000000059191    -0.068951512281     0.000000000000    14.003074004780
           H         -0.939730940809     0.319345487719     0.000000000000     1.007825032070
           H          0.469865059191     0.319345487719     0.813831000000     1.007825032070
           H          0.469865059191     0.319345487719    -0.813831000000     1.007825032070

  Charge       = 0
  Multiplicity = 1
  Basis Set: STO-3G
    Blend: STO-3G
  Basis Set: (STO-3G AUX)
    Blend: DEF2-SVP-JKFIT

    Orbital Energies (a.u.)
    -----------------------

    Doubly Occupied:

       1Ap   -15.306093     2Ap    -1.088977     1App   -0.570367
       3Ap    -0.570367     4Ap    -0.353097

  @DF-RHF Final Energy:   -55.45470408254769

   => Energetics <=

    Nuclear Repulsion Energy =             11.9045289216464543
    One-Electron Energy =                 -98.9406634806475864
    Two-Electron Energy =                  31.5814304764534342
    DFT Exchange-Correlation Energy =       0.0000000000000000
    Empirical Dispersion Energy =           0.0000000000000000
    PCM Polarization Energy =               0.0000000000000000
    EFP Energy =                            0.0000000000000000
    Total Energy =                        -55.4547040825476927
*** Psi4 exiting successfully. Buy a developer a beer!
