============================== echo of input deck ==============================
echo
start ammonia

permanent_dir ./perm
scratch_dir ./scratch

charge 0
geometry units angstroms noautosym
N            .000000     .000000     .116489
H           .000000     .939731    -.271808
H            .813831    -.469865    -.271808
H           -.813831    -.469865    -.271808
end

basis
 * library sto-3g
end

scf
print overlap kinetic potential ao2eints debug
end
task scf
================================================================================

 Output coordinates in angstroms (scale by  1.889725989 to convert to a.u.)

  No.       Tag          Charge          X              Y              Z
 ---- ---------------- ---------- -------------- -------------- --------------
    1 N                    7.0000     0.00000000    -0.00000010     0.11648910
    2 H                    1.0000     0.00000000     0.93973090    -0.27180790
    3 H                    1.0000     0.81383100    -0.46986510    -0.27180790
    4 H                    1.0000    -0.81383100    -0.46986510    -0.27180790

 Vector    1  Occ=2.000000D+00  E=-1.537152D+01

 Vector    2  Occ=2.000000D+00  E=-1.297075D+00

 Vector    3  Occ=2.000000D+00  E=-4.938516D-01

 Vector    4  Occ=2.000000D+00  E=-4.938513D-01

 Vector    5  Occ=2.000000D+00  E=-2.076811D-01

 Vector    6  Occ=0.000000D+00  E= 5.515587D-01

 Vector    7  Occ=0.000000D+00  E= 6.127098D-01

 Vector    8  Occ=0.000000D+00  E= 6.127102D-01

         Total SCF energy =    -55.454560873791

 Vector    1  Occ=2.000000D+00  E=-1.530590D+01

 Vector    2  Occ=2.000000D+00  E=-1.088961D+00

 Vector    3  Occ=2.000000D+00  E=-5.703610D-01

 Vector    4  Occ=2.000000D+00  E=-5.703608D-01

 Vector    5  Occ=2.000000D+00  E=-3.530878D-01

 Vector    6  Occ=0.000000D+00  E= 6.360584D-01

 Vector    7  Occ=0.000000D+00  E= 7.247631D-01

 Vector    8  Occ=0.000000D+00  E= 7.247634D-01

       Multipole analysis of the density wrt the origin
       ------------------------------------------------

     L   x y z        total         open         nuclear
     -   - - -        -----         ----         -------
     0   0 0 0     -0.000000      0.000000     10.000000

     1   1 0 0     -0.000000      0.000000      0.000000
     1   0 1 0      0.000000      0.000000     -0.000000
     1   0 0 1     -0.708253      0.000000     -0.000000

     2   2 0 0     -4.397583      0.000000      4.730381
     2   1 1 0      0.000000      0.000000      0.000000
     2   1 0 1      0.000000      0.000000      0.000000
     2   0 2 0     -4.397584      0.000000      4.730377
     2   0 1 1     -0.000000      0.000000     -0.000001

 Total times  cpu:        0.0s     wall:        0.0s
