                               Psi4 1.1 release

  ==> Input File <==

--------------------------------------------------------------------------
import numpy as np

molecule nitrido {
0 1
 N         -1.4026136199        0.5719783806       -0.9805821183
 Cr        -0.0002626726       -0.0481570108       -0.0164527662
 F         -0.1950863011        0.2591886180        1.7170223187
 N          0.0502052043       -1.5370135254       -0.3376043483
 N          1.5802389277        0.5669084637       -0.6302732322
 H         -1.4810024696        1.5459544921       -1.2986376614
 H         -2.1057839749       -0.0236246723       -1.4294492765
 H          1.8288800483        1.5621173002       -0.5455108348
 H          2.2825730031        0.0469328212       -1.1648742367
units angstrom
}

set {
	basis 6-31G
	reference rhf
	}

wfn = Wavefunction.build(nitrido,get_global_option('basis'))

mints=MintsHelper(wfn.basisset())
E = energy('scf')
S = mints.ao_overlap()
T = mints.ao_kinetic()
V = mints.ao_potential()
I = mints.ao_eri()
Enuc = nitrido.nuclear_repulsion_energy()

S_array = S.to_array()
T_array = T.to_array()
V_array = V.to_array()
I_array = I.to_array()

np.save('s',S_array)
np.save('t',T_array)
np.save('v',V_array)
np.save('eri',I_array)
np.save('enuc',Enuc)
print(E)
--------------------------------------------------------------------------

    Molecular point group: c1

    Geometry (in Angstrom), charge = 0, multiplicity = 1:

       Center              X                  Y                   Z               Mass
    ------------   -----------------  -----------------  -----------------  -----------------
           N         -1.402606166466     0.571946272328    -0.980654684703    14.003074004780
          CR         -0.000255219166    -0.048189119072    -0.016525332603    51.940507472000
           F         -0.195078847666     0.259156509728     1.716949752297    18.998403224000
           N          0.050212657734    -1.537045633672    -0.337676914703    14.003074004780
           N          1.580246381134     0.566876355428    -0.630345798603    14.003074004780
           H         -1.480995016166     1.545922383828    -1.298710227803     1.007825032070
           H         -2.105776521466    -0.023656780572    -1.429521842903     1.007825032070
           H          1.828887501734     1.562085191928    -0.545583401203     1.007825032070
           H          2.282580456534     0.046900712928    -1.164946803103     1.007825032070

  Charge       = 0
  Multiplicity = 1
  Basis Set: 6-31G
    Blend: 6-31G
  Basis Set: (6-31G AUX)
    Blend: CC-PVDZ-JKFIT + DEF2-QZVPP-JKFIT

    Orbital Energies (a.u.)
    -----------------------

    Doubly Occupied:

       1A   -220.893906     2A    -26.774541     3A    -26.226069
       4A    -22.706364     5A    -22.702681     6A    -22.693556
       7A    -15.698475     8A    -15.583619     9A    -15.578289
      10A     -3.711931    11A     -2.470348    12A     -2.446880
      13A     -2.444713    14A     -1.488515    15A     -1.133757
      16A     -1.123688    17A     -1.054704    18A     -0.679351
      19A     -0.672846    20A     -0.622983    21A     -0.605132
      22A     -0.591729    23A     -0.585433    24A     -0.575896
      25A     -0.520809    26A     -0.500005    27A     -0.487215
      28A     -0.447683    29A     -0.401305

  @DF-RHF Final Energy: -1308.00980925437943

   => Energetics <=

    Nuclear Repulsion Energy =            334.1143684253275410
    One-Electron Energy =               -2461.4035318519927387
    Two-Electron Energy =                 819.2793541722857071
    DFT Exchange-Correlation Energy =       0.0000000000000000
    Empirical Dispersion Energy =           0.0000000000000000
    PCM Polarization Energy =               0.0000000000000000
    EFP Energy =                            0.0000000000000000
    Total Energy =                      -1308.0098092543794337
*** Psi4 exiting successfully. Buy a developer a beer!
